<PP_INFO>
Generated using APE Version-2.3.2
Author: Unknown Generation date: 2021/09/10
Pseudopotential for: Na
Exchange-correlation: 
    0        The Pseudo was generated with a Non-Relativistic Calculation
State   n   l    occ     rc         ev
3s      3   0    1.00    2.95     -0.103473
3p      3   1    0.00    2.95     -0.028544
3d      3   2    0.00    2.95      0.000000
4f      4   3    0.00    2.95      0.000000
</PP_INFO>
<PP_HEADER>
   0                   Version Number
  Na                   Element
   NC                  Norm - Conserving pseudopotential
    T                  Nonlinear Core Correction
                            Exchange-Correlation functional
    1.00000000000      Z valence
    0.00000000000      Total energy
  0.0000000  0.0000000 Suggested cutoff for wfc and rho
    3                  Max angular momentum component
  600                  Number of points in mesh
    4    3             Number of Wavefunctions, Number of Projectors
 Wavefunctions         nl  l   occ
                       3s  0  1.00
                       3p  1  0.00
                       3d  2  0.00
                       4f  3  0.00
</PP_HEADER>
<PP_MESH>
  <PP_R>
  3.31662470657E-05  3.40023987251E-05  3.48596305385E-05  3.57384739561E-05
  3.66394738264E-05  3.75631887338E-05  3.85101913455E-05  3.94810687660E-05
  4.04764229011E-05  4.14968708314E-05  4.25430451946E-05  4.36155945779E-05
  4.47151839197E-05  4.58424949223E-05  4.69982264745E-05  4.81830950843E-05
  4.93978353240E-05  5.06432002848E-05  5.19199620441E-05  5.32289121443E-05
  5.45708620830E-05  5.59466438166E-05  5.73571102758E-05  5.88031358945E-05
  6.02856171520E-05  6.18054731284E-05  6.33636460749E-05  6.49611019977E-05
  6.65988312567E-05  6.82778491799E-05  6.99991966925E-05  7.17639409626E-05
  7.35731760624E-05  7.54280236468E-05  7.73296336484E-05  7.92791849909E-05
  8.12778863198E-05  8.33269767515E-05  8.54277266418E-05  8.75814383731E-05
  8.97894471623E-05  9.20531218883E-05  9.43738659407E-05  9.67531180899E-05
  9.91923533787E-05  1.01693084038E-04  1.04256860421E-04  1.06885271971E-04
  1.09579948198E-04  1.12342559697E-04  1.15174819179E-04  1.18078482532E-04
  1.21055349915E-04  1.24107266869E-04  1.27236125462E-04  1.30443865464E-04
  1.33732475549E-04  1.37103994525E-04  1.40560512602E-04  1.44104172685E-04
  1.47737171706E-04  1.51461761981E-04  1.55280252610E-04  1.59195010907E-04
  1.63208463870E-04  1.67323099681E-04  1.71541469253E-04  1.75866187810E-04
  1.80299936509E-04  1.84845464099E-04  1.89505588630E-04  1.94283199195E-04
  1.99181257727E-04  2.04202800829E-04  2.09350941661E-04  2.14628871868E-04
  2.20039863561E-04  2.25587271343E-04  2.31274534387E-04  2.37105178576E-04
  2.43082818678E-04  2.49211160598E-04  2.55494003666E-04  2.61935242999E-04
  2.68538871913E-04  2.75308984398E-04  2.82249777660E-04  2.89365554717E-04
  2.96660727073E-04  3.04139817449E-04  3.11807462586E-04  3.19668416125E-04
  3.27727551549E-04  3.35989865205E-04  3.44460479404E-04  3.53144645595E-04
  3.62047747620E-04  3.71175305054E-04  3.80532976624E-04  3.90126563719E-04
  3.99962013988E-04  4.10045425024E-04  4.20383048147E-04  4.30981292277E-04
  4.41846727911E-04  4.52986091192E-04  4.64406288089E-04  4.76114398676E-04
  4.88117681524E-04  5.00423578195E-04  5.13039717865E-04  5.25973922045E-04
  5.39234209434E-04  5.52828800891E-04  5.66766124529E-04  5.81054820943E-04
  5.95703748564E-04  6.10721989153E-04  6.26118853430E-04  6.41903886848E-04
  6.58086875508E-04  6.74677852228E-04  6.91687102764E-04  7.09125172185E-04
  7.27002871409E-04  7.45331283909E-04  7.64121772583E-04  7.83385986796E-04
  8.03135869606E-04  8.23383665166E-04  8.44141926316E-04  8.65423522363E-04
  8.87241647062E-04  9.09609826796E-04  9.32541928959E-04  9.56052170555E-04
  9.80155127012E-04  1.00486574122E-03  1.03019933279E-03  1.05617160755E-03
  1.08279866730E-03  1.11009701976E-03  1.13808358886E-03  1.16677572516E-03
  1.19619121666E-03  1.22634829982E-03  1.25726567084E-03  1.28896249728E-03
  1.32145842993E-03  1.35477361500E-03  1.38892870659E-03  1.42394487952E-03
  1.45984384245E-03  1.49664785133E-03  1.53437972319E-03  1.57306285032E-03
  1.61272121474E-03  1.65337940308E-03  1.69506262183E-03  1.73779671294E-03
  1.78160816988E-03  1.82652415404E-03  1.87257251155E-03  1.91978179060E-03
  1.96818125910E-03  2.01780092280E-03  2.06867154396E-03  2.12082466038E-03
  2.17429260493E-03  2.22910852564E-03  2.28530640625E-03  2.34292108722E-03
  2.40198828741E-03  2.46254462616E-03  2.52462764602E-03  2.58827583604E-03
  2.65352865560E-03  2.72042655889E-03  2.78901101998E-03  2.85932455856E-03
  2.93141076625E-03  3.00531433368E-03  3.08108107817E-03  3.15875797213E-03
  3.23839317218E-03  3.32003604903E-03  3.40373721805E-03  3.48954857070E-03
  3.57752330664E-03  3.66771596677E-03  3.76018246700E-03  3.85498013293E-03
  3.95216773539E-03  4.05180552689E-03  4.15395527896E-03  4.25868032044E-03
  4.36604557674E-03  4.47611761011E-03  4.58896466091E-03  4.70465668987E-03
  4.82326542152E-03  4.94486438862E-03  5.06952897777E-03  5.19733647612E-03
  5.32836611930E-03  5.46269914057E-03  5.60041882113E-03  5.74161054177E-03
  5.88636183584E-03  6.03476244345E-03  6.18690436717E-03  6.34288192902E-03
  6.50279182898E-03  6.66673320491E-03  6.83480769404E-03  7.00711949596E-03
  7.18377543724E-03  7.36488503763E-03  7.55056057798E-03  7.74091716985E-03
  7.93607282687E-03  8.13614853788E-03  8.34126834198E-03  8.55155940541E-03
  8.76715210039E-03  8.98818008593E-03  9.21478039071E-03  9.44709349805E-03
  9.68526343296E-03  9.92943785146E-03  1.01797681321E-02  1.04364094699E-02
  1.06995209723E-02  1.09692657583E-02  1.12458110589E-02  1.15293283215E-02
  1.18199933156E-02  1.21179862421E-02  1.24234918450E-02  1.27366995257E-02
  1.30578034608E-02  1.33870027220E-02  1.37245014000E-02  1.40705087308E-02
  1.44252392254E-02  1.47889128027E-02  1.51617549260E-02  1.55439967430E-02
  1.59358752285E-02  1.63376333319E-02  1.67495201273E-02  1.71717909685E-02
  1.76047076469E-02  1.80485385537E-02  1.85035588468E-02  1.89700506209E-02
  1.94483030827E-02  1.99386127298E-02  2.04412835350E-02  2.09566271346E-02
  2.14849630214E-02  2.20266187428E-02  2.25819301043E-02  2.31512413770E-02
  2.37349055117E-02  2.43332843572E-02  2.49467488849E-02  2.55756794189E-02
  2.62204658713E-02  2.68815079846E-02  2.75592155788E-02  2.82540088061E-02
  2.89663184111E-02  2.96965859979E-02  3.04452643036E-02  3.12128174795E-02
  3.19997213784E-02  3.28064638500E-02  3.36335450429E-02  3.44814777150E-02
  3.53507875514E-02  3.62420134900E-02  3.71557080560E-02  3.80924377042E-02
  3.90527831703E-02  4.00373398308E-02  4.10467180722E-02  4.20815436694E-02
  4.31424581739E-02  4.42301193108E-02  4.53452013876E-02  4.64883957113E-02
  4.76604110177E-02  4.88619739102E-02  5.00938293109E-02  5.13567409216E-02
  5.26514916981E-02  5.39788843351E-02  5.53397417640E-02  5.67349076631E-02
  5.81652469804E-02  5.96316464704E-02  6.11350152432E-02  6.26762853284E-02
  6.42564122532E-02  6.58763756342E-02  6.75371797852E-02  6.92398543397E-02
  7.09854548892E-02  7.27750636375E-02  7.46097900719E-02  7.64907716509E-02
  7.84191745093E-02  8.03961941812E-02  8.24230563414E-02  8.45010175649E-02
  8.66313661062E-02  8.88154226979E-02  9.10545413694E-02  9.33501102865E-02
  9.57035526119E-02  9.81163273876E-02  1.00589930439E-01  1.03125895304E-01
  1.05725794181E-01  1.08391238904E-01  1.11123881946E-01  1.13925417438E-01
  1.16797582222E-01  1.19742156928E-01  1.22760967076E-01  1.25855884210E-01
  1.29028827058E-01  1.32281762720E-01  1.35616707888E-01  1.39035730098E-01
  1.42540949010E-01  1.46134537721E-01  1.49818724116E-01  1.53595792246E-01
  1.57468083744E-01  1.61437999281E-01  1.65508000048E-01  1.69680609286E-01
  1.73958413848E-01  1.78344065807E-01  1.82840284094E-01  1.87449856188E-01
  1.92175639844E-01  1.97020564861E-01  2.01987634904E-01  2.07079929362E-01
  2.12300605256E-01  2.17652899202E-01  2.23140129411E-01  2.28765697752E-01
  2.34533091856E-01  2.40445887282E-01  2.46507749731E-01  2.52722437319E-01
  2.59093802909E-01  2.65625796500E-01  2.72322467669E-01  2.79187968091E-01
  2.86226554107E-01  2.93442589364E-01  3.00840547522E-01  3.08425015023E-01
  3.16200693942E-01  3.24172404893E-01  3.32345090025E-01  3.40723816082E-01
  3.49313777546E-01  3.58120299857E-01  3.67148842712E-01  3.76405003455E-01
  3.85894520542E-01  3.95623277101E-01  4.05597304581E-01  4.15822786487E-01
  4.26306062218E-01  4.37053630992E-01  4.48072155882E-01  4.59368467941E-01
  4.70949570439E-01  4.82822643205E-01  4.94995047080E-01  5.07474328477E-01
  5.20268224060E-01  5.33384665544E-01  5.46831784608E-01  5.60617917938E-01
  5.74751612396E-01  5.89241630320E-01  6.04096954951E-01  6.19326796010E-01
  6.34940595399E-01  6.50948033063E-01  6.67359032986E-01  6.84183769343E-01
  7.01432672811E-01  7.19116437036E-01  7.37246025256E-01  7.55832677107E-01
  7.74887915582E-01  7.94423554184E-01  8.14451704242E-01  8.34984782423E-01
  8.56035518432E-01  8.77616962899E-01  8.99742495474E-01  9.22425833119E-01
  9.45681038614E-01  9.69522529276E-01  9.93965085892E-01  1.01902386189E+00
  1.04471439273E+00  1.07105260553E+00  1.09805482896E+00  1.12573780332E+00
  1.15411869099E+00  1.18321508699E+00  1.21304502996E+00  1.24362701328E+00
  1.27497999660E+00  1.30712341752E+00  1.34007720371E+00  1.37386178523E+00
  1.40849810719E+00  1.44400764275E+00  1.48041240643E+00  1.51773496776E+00
  1.55599846526E+00  1.59522662081E+00  1.63544375431E+00  1.67667479882E+00
  1.71894531597E+00  1.76228151181E+00  1.80671025310E+00  1.85225908391E+00
  1.89895624273E+00  1.94683067996E+00  1.99591207589E+00  2.04623085905E+00
  2.09781822511E+00  2.15070615622E+00  2.20492744082E+00  2.26051569399E+00
  2.31750537826E+00  2.37593182499E+00  2.43583125631E+00  2.49724080750E+00
  2.56019855008E+00  2.62474351538E+00  2.69091571875E+00  2.75875618436E+00
  2.82830697064E+00  2.89961119635E+00  2.97271306731E+00  3.04765790383E+00
  3.12449216875E+00  3.20326349631E+00  3.28402072165E+00  3.36681391107E+00
  3.45169439312E+00  3.53871479036E+00  3.62792905202E+00  3.71939248745E+00
  3.81316180039E+00  3.90929512415E+00  4.00785205761E+00  4.10889370220E+00
  4.21248269979E+00  4.31868327149E+00  4.42756125749E+00  4.53918415788E+00
  4.65362117448E+00  4.77094325374E+00  4.89122313077E+00  5.01453537436E+00
  5.14095643328E+00  5.27056468362E+00  5.40344047741E+00  5.53966619245E+00
  5.67932628333E+00  5.82250733382E+00  5.96929811058E+00  6.11978961813E+00
  6.27407515529E+00  6.43225037306E+00  6.59441333387E+00  6.76066457239E+00
  6.93110715788E+00  7.10584675805E+00  7.28499170461E+00  7.46865306039E+00
  7.65694468825E+00  7.84998332159E+00  8.04788863682E+00  8.25078332747E+00
  8.45879318028E+00  8.67204715321E+00  8.89067745537E+00  9.11481962897E+00
  9.34461263337E+00  9.58019893121E+00  9.82172457678E+00  1.00693393065E+01
  1.03231966318E+01  1.05834539342E+01  1.08502725632E+01  1.11238179357E+01
  1.14042596392E+01  1.16917715365E+01  1.19865318738E+01  1.22887233909E+01
  1.25985334346E+01  1.29161540752E+01  1.32417822248E+01  1.35756197603E+01
  1.39178736477E+01  1.42687560711E+01  1.46284845638E+01  1.49972821434E+01
  1.53753774500E+01  1.57630048877E+01  1.61604047704E+01  1.65678234704E+01
  1.69855135715E+01  1.74137340249E+01  1.78527503107E+01  1.83028346018E+01
  1.87642659326E+01  1.92373303727E+01  1.97223212033E+01  2.02195390998E+01
  2.07292923178E+01  2.12518968843E+01  2.17876767936E+01  2.23369642083E+01
  2.29000996650E+01  2.34774322856E+01  2.40693199938E+01  2.46761297366E+01
  2.52982377124E+01  2.59360296037E+01  2.65899008164E+01  2.72602567251E+01
  2.79475129242E+01  2.86520954855E+01  2.93744412227E+01  3.01149979617E+01
  3.08742248187E+01  3.16525924845E+01  3.24505835167E+01  3.32686926384E+01
  3.41074270451E+01  3.49673067193E+01  3.58488647527E+01  3.67526476766E+01
  3.76792158012E+01  3.86291435622E+01  3.96030198776E+01  4.06014485127E+01
  4.16250484539E+01  4.26744542932E+01  4.37503166209E+01  4.48533024296E+01
  4.59840955272E+01  4.71433969611E+01  4.83319254527E+01  4.95504178432E+01
  5.07996295499E+01  5.20803350352E+01  5.33933282863E+01  5.47394233075E+01
  5.61194546249E+01  5.75342778039E+01  5.89847699793E+01  6.04718303995E+01
  6.19963809835E+01  6.35593668931E+01  6.51617571180E+01  6.68045450776E+01
  6.84887492358E+01  7.02154137333E+01  7.19856090343E+01  7.38004325905E+01
  7.56610095213E+01  7.75684933116E+01  7.95240665265E+01  8.15289415446E+01
  8.35843613099E+01  8.56916001021E+01  8.78519643266E+01  9.00667933244E+01
  9.23374602029E+01  9.46653726863E+01  9.70519739891E+01  9.94987437107E+01
  </PP_R>
  <PP_RAB>
  8.25785448977E-07  8.46604261311E-07  8.67947935093E-07  8.89829702564E-07
  9.12263129563E-07  9.35262123934E-07  9.58840944152E-07  9.83014208162E-07
  1.00779690244E-06  1.03320439128E-06  1.05925242634E-06  1.08595715637E-06
  1.11333513726E-06  1.14140334228E-06  1.17017917262E-06  1.19968046817E-06
  1.22992551858E-06  1.26093307458E-06  1.29272235965E-06  1.32531308190E-06
  1.35872544629E-06  1.39298016720E-06  1.42809848118E-06  1.46410216024E-06
  1.50101352523E-06  1.53885545975E-06  1.57765142433E-06  1.61742547093E-06
  1.65820225791E-06  1.70000706527E-06  1.74286581036E-06  1.78680506392E-06
  1.83185206656E-06  1.87803474566E-06  1.92538173267E-06  1.97392238087E-06
  2.02368678354E-06  2.07470579268E-06  2.12701103807E-06  2.18063494690E-06
  2.23561076390E-06  2.29197257193E-06  2.34975531308E-06  2.40899481040E-06
  2.46972779005E-06  2.53199190410E-06  2.59582575386E-06  2.66126891381E-06
  2.72836195614E-06  2.79714647591E-06  2.86766511683E-06  2.93996159768E-06
  3.01408073946E-06  3.09006849311E-06  3.16797196808E-06  3.24783946147E-06
  3.32972048797E-06  3.41366581063E-06  3.49972747225E-06  3.58795882769E-06
  3.67841457692E-06  3.77115079897E-06  3.86622498665E-06  3.96369608224E-06
  4.06362451400E-06  4.16607223363E-06  4.27110275470E-06  4.37878119201E-06
  4.48917430199E-06  4.60235052402E-06  4.71838002293E-06  4.83733473246E-06
  4.95928839986E-06  5.08431663162E-06  5.21249694035E-06  5.34390879282E-06
  5.47863365921E-06  5.61675506367E-06  5.75835863605E-06  5.90353216501E-06
  6.05236565245E-06  6.20495136929E-06  6.36138391270E-06  6.52176026472E-06
  6.68617985240E-06  6.85474460944E-06  7.02755903937E-06  7.20473028038E-06
  7.38636817168E-06  7.57258532165E-06  7.76349717761E-06  7.95922209743E-06
  8.15988142288E-06  8.36559955489E-06  8.57650403063E-06  8.79272560260E-06
  9.01439831971E-06  9.24165961033E-06  9.47465036757E-06  9.71351503656E-06
  9.95840170403E-06  1.02094621901E-05  1.04668521424E-05  1.07307311327E-05
  1.10012627556E-05  1.12786147300E-05  1.15629590034E-05  1.18544718580E-05
  1.21533340203E-05  1.24597307733E-05  1.27738520708E-05  1.30958926557E-05
  1.34260521807E-05  1.37645353316E-05  1.41115519547E-05  1.44673171867E-05
  1.48320515882E-05  1.52059812801E-05  1.55893380843E-05  1.59823596668E-05
  1.63852896856E-05  1.67983779417E-05  1.72218805334E-05  1.76560600159E-05
  1.81011855633E-05  1.85575331360E-05  1.90253856517E-05  1.95050331606E-05
  1.99967730253E-05  2.05009101052E-05  2.10177569456E-05  2.15476339712E-05
  2.20908696851E-05  2.26478008720E-05  2.32187728075E-05  2.38041394718E-05
  2.44042637692E-05  2.50195177534E-05  2.56502828576E-05  2.62969501315E-05
  2.69599204834E-05  2.76396049290E-05  2.83364248460E-05  2.90508122353E-05
  2.97832099892E-05  3.05340721656E-05  3.13038642696E-05  3.20930635420E-05
  3.29021592556E-05  3.37316530179E-05  3.45820590825E-05  3.54539046678E-05
  3.63477302840E-05  3.72640900678E-05  3.82035521265E-05  3.91666988895E-05
  4.01541274703E-05  4.11664500357E-05  4.22042941861E-05  4.32683033442E-05
  4.43591371539E-05  4.54774718894E-05  4.66240008744E-05  4.77994349120E-05
  4.90045027250E-05  5.02399514085E-05  5.15065468919E-05  5.28050744150E-05
  5.41363390139E-05  5.55011660204E-05  5.69004015738E-05  5.83349131452E-05
  5.98055900755E-05  6.13133441269E-05  6.28591100477E-05  6.44438461521E-05
  6.60685349145E-05  6.77341835781E-05  6.94418247798E-05  7.11925171902E-05
  7.29873461700E-05  7.48274244428E-05  7.67138927849E-05  7.86479207327E-05
  8.06307073078E-05  8.26634817601E-05  8.47475043300E-05  8.68840670298E-05
  8.90744944447E-05  9.13201445537E-05  9.36224095719E-05  9.59827168133E-05
  9.84025295758E-05  1.00883348049E-04  1.03426710242E-04  1.06034192940E-04
  1.08707412681E-04  1.11448026755E-04  1.14257734236E-04  1.17138277033E-04
  1.20091440969E-04  1.23119056889E-04  1.26223001798E-04  1.29405200019E-04
  1.32667624390E-04  1.36012297487E-04  1.39441292875E-04  1.42956736398E-04
  1.46560807493E-04  1.50255740541E-04  1.54043826258E-04  1.57927413107E-04
  1.61908908761E-04  1.65990781590E-04  1.70175562195E-04  1.74465844976E-04
  1.78864289741E-04  1.83373623353E-04  1.87996641422E-04  1.92736210037E-04
  1.97595267546E-04  2.02576826374E-04  2.07683974891E-04  2.12919879330E-04
  2.18287785746E-04  2.23791022030E-04  2.29432999974E-04  2.35217217383E-04
  2.41147260243E-04  2.47226804951E-04  2.53459620584E-04  2.59849571244E-04
  2.66400618451E-04  2.73116823595E-04  2.80002350463E-04  2.87061467809E-04
  2.94298552010E-04  3.01718089775E-04  3.09324680926E-04  3.17123041250E-04
  3.25118005427E-04  3.33314530020E-04  3.41717696554E-04  3.50332714661E-04
  3.59164925315E-04  3.68219804141E-04  3.77502964809E-04  3.87020162513E-04
  3.96777297545E-04  4.06780418944E-04  4.17035728253E-04  4.27549583364E-04
  4.38328502453E-04  4.49379168027E-04  4.60708431066E-04  4.72323315270E-04
  4.84231021410E-04  4.96438931798E-04  5.08954614859E-04  5.21785829827E-04
  5.34940531550E-04  5.48426875430E-04  5.62253222470E-04  5.76428144463E-04
  5.90960429306E-04  6.05859086444E-04  6.21133352461E-04  6.36792696804E-04
  6.52846827652E-04  6.69305697936E-04  6.86179511511E-04  7.03478729479E-04
  7.21214076678E-04  7.39396548327E-04  7.58037416847E-04  7.77148238843E-04
  7.96740862278E-04  8.16827433809E-04  8.37420406323E-04  8.58532546655E-04
  8.80176943505E-04  9.02367015551E-04  9.25116519766E-04  9.48439559952E-04
  9.72350595479E-04  9.96864450251E-04  1.02199632190E-03  1.04776179119E-03
  1.07417683172E-03  1.10125781977E-03  1.12902154448E-03  1.15748521829E-03
  1.18666648755E-03  1.21658344351E-03  1.24725463350E-03  1.27869907246E-03
  1.31093625471E-03  1.34398616605E-03  1.37786929611E-03  1.41260665111E-03
  1.44821976685E-03  1.48473072206E-03  1.52216215211E-03  1.56053726301E-03
  1.59987984583E-03  1.64021429142E-03  1.68156560557E-03  1.72395942446E-03
  1.76742203061E-03  1.81198036911E-03  1.85766206441E-03  1.90449543734E-03
  1.95250952278E-03  2.00173408757E-03  2.05219964900E-03  2.10393749376E-03
  2.15697969728E-03  2.21135914363E-03  2.26710954595E-03  2.32426546731E-03
  2.38286234212E-03  2.44293649816E-03  2.50452517905E-03  2.56766656735E-03
  2.63239980824E-03  2.69876503381E-03  2.76680338789E-03  2.83655705159E-03
  2.90806926945E-03  2.98138437623E-03  3.05654782444E-03  3.13360621245E-03
  3.21260731346E-03  3.29360010504E-03  3.37663479955E-03  3.46176287525E-03
  3.54903710820E-03  3.63851160501E-03  3.73024183635E-03  3.82428467138E-03
  3.92069841297E-03  4.01954283385E-03  4.12087921369E-03  4.22477037707E-03
  4.33128073244E-03  4.44047631204E-03  4.55242481286E-03  4.66719563857E-03
  4.78485994259E-03  4.90549067217E-03  5.02916261363E-03  5.15595243873E-03
  5.28593875219E-03  5.41920214043E-03  5.55582522152E-03  5.69589269641E-03
  5.83949140146E-03  5.98671036221E-03  6.13764084867E-03  6.29237643181E-03
  6.45101304163E-03  6.61364902661E-03  6.78038521468E-03  6.95132497573E-03
  7.12657428573E-03  7.30624179236E-03  7.49043888245E-03  7.67927975096E-03
  7.87288147182E-03  8.07136407053E-03  8.27485059849E-03  8.48346720939E-03
  8.69734323734E-03  8.91661127710E-03  9.14140726624E-03  9.37187056948E-03
  9.60814406502E-03  9.85037423317E-03  1.00987112471E-02  1.03533090661E-02
  1.06143255308E-02  1.08819224611E-02  1.11562657568E-02  1.14375254997E-02
  1.17258760601E-02  1.20214962038E-02  1.23245692039E-02  1.26352829537E-02
  1.29538300834E-02  1.32804080800E-02  1.36152194088E-02  1.39584716399E-02
  1.43103775761E-02  1.46711553854E-02  1.50410287357E-02  1.54202269341E-02
  1.58089850687E-02  1.62075441541E-02  1.66161512815E-02  1.70350597712E-02
  1.74645293300E-02  1.79048262123E-02  1.83562233848E-02  1.88190006961E-02
  1.92934450500E-02  1.97798505834E-02  2.02785188486E-02  2.07897590004E-02
  2.13138879877E-02  2.18512307498E-02  2.24021204183E-02  2.29668985231E-02
  2.35459152045E-02  2.41395294302E-02  2.47481092176E-02  2.53720318625E-02
  2.60116841723E-02  2.66674627065E-02  2.73397740219E-02  2.80290349254E-02
  2.87356727315E-02  2.94601255280E-02  3.02028424474E-02  3.09642839448E-02
  3.17449220843E-02  3.25452408308E-02  3.33657363506E-02  3.42069173187E-02
  3.50693052344E-02  3.59534347443E-02  3.68598539742E-02  3.77891248683E-02
  3.87418235382E-02  3.97185406197E-02  4.07198816392E-02  4.17464673887E-02
  4.27989343112E-02  4.38779348949E-02  4.49841380779E-02  4.61182296628E-02
  4.72809127419E-02  4.84729081332E-02  4.96949548269E-02  5.09478104442E-02
  5.22322517065E-02  5.35490749169E-02  5.48990964542E-02  5.62831532788E-02
  5.77021034517E-02  5.91568266664E-02  6.06482247943E-02  6.21772224436E-02
  6.37447675330E-02  6.53518318790E-02  6.69994117985E-02  6.86885287264E-02
  7.04202298489E-02  7.21955887530E-02  7.40157060915E-02  7.58817102657E-02
  7.77947581252E-02  7.97560356845E-02  8.17667588590E-02  8.38281742180E-02
  8.59415597583E-02  8.81082256961E-02  9.03295152793E-02  9.26068056204E-02
  9.49415085500E-02  9.73350714926E-02  9.97889783631E-02  1.02304750488E-01
  1.04883947547E-01  1.07528168541E-01  1.10239052783E-01  1.13018280916E-01
  1.15867575952E-01  1.18788704343E-01  1.21783477072E-01  1.24853750782E-01
  1.28001428923E-01  1.31228462931E-01  1.34536853441E-01  1.37928651525E-01
  1.41405959965E-01  1.44970934556E-01  1.48625785443E-01  1.52372778489E-01
  1.56214236684E-01  1.60152541580E-01  1.64190134774E-01  1.68329519413E-01
  1.72573261754E-01  1.76923992752E-01  1.81384409688E-01  1.85957277847E-01
  1.90645432227E-01  1.95451779300E-01  2.00379298813E-01  2.05431045635E-01
  2.10610151650E-01  2.15919827703E-01  2.21363365582E-01  2.26944140069E-01
  2.32665611026E-01  2.38531325538E-01  2.44544920120E-01  2.50710122965E-01
  2.57030756256E-01  2.63510738538E-01  2.70154087147E-01  2.76964920697E-01
  2.83947461639E-01  2.91106038875E-01  2.98445090440E-01  3.05969166261E-01
  3.13682930968E-01  3.21591166794E-01  3.29698776534E-01  3.38010786589E-01
  3.46532350079E-01  3.55268750040E-01  3.64225402696E-01  3.73407860821E-01
  3.82821817180E-01  3.92473108055E-01  4.02367716870E-01  4.12511777893E-01
  4.22911580045E-01  4.33573570795E-01  4.44504360159E-01  4.55710724799E-01
  4.67199612221E-01  4.78978145084E-01  4.91053625618E-01  5.03433540147E-01
  5.16125563732E-01  5.29137564930E-01  5.42477610673E-01  5.56153971264E-01
  5.70175125513E-01  5.84549765983E-01  5.99286804390E-01  6.14395377119E-01
  6.29884850893E-01  6.45764828578E-01  6.62045155138E-01  6.78735923736E-01
  6.95847481996E-01  7.13390438411E-01  7.31375668929E-01  7.49814323685E-01
  7.68717833924E-01  7.88097919079E-01  8.07966594046E-01  8.28336176621E-01
  8.49219295150E-01  8.70628896345E-01  8.92578253321E-01  9.15080973817E-01
  9.38151008640E-01  9.61802660304E-01  9.86050591909E-01  1.01090983622E+00
  1.03639580499E+00  1.06252429853E+00  1.08931151547E+00  1.11677406285E+00
  1.14492896635E+00  1.17379368093E+00  1.20338610157E+00  1.23372457440E+00
  1.26482790810E+00  1.29671538552E+00  1.32940677563E+00  1.36292234582E+00
  1.39728287442E+00  1.43250966363E+00  1.46862455266E+00  1.50564993133E+00
  1.54360875393E+00  1.58252455343E+00  1.62242145610E+00  1.66332419647E+00
  1.70525813263E+00  1.74824926197E+00  1.79232423730E+00  1.83751038339E+00
  1.88383571388E+00  1.93132894864E+00  1.98001953163E+00  2.02993764910E+00
  2.08111424832E+00  2.13358105678E+00  2.18737060184E+00  2.24251623092E+00
  2.29905213213E+00  2.35701335552E+00  2.41643583478E+00  2.47735640952E+00
  </PP_RAB>
</PP_MESH>
<PP_NLCC>
  7.13268956970E-01  7.13268956916E-01  7.13268956860E-01  7.13268956800E-01
  7.13268956738E-01  7.13268956672E-01  7.13268956604E-01  7.13268956531E-01
  7.13268956455E-01  7.13268956375E-01  7.13268956291E-01  7.13268956203E-01
  7.13268956110E-01  7.13268956013E-01  7.13268955910E-01  7.13268955803E-01
  7.13268955690E-01  7.13268955571E-01  7.13268955445E-01  7.13268955314E-01
  7.13268955176E-01  7.13268955031E-01  7.13268954878E-01  7.13268954718E-01
  7.13268954549E-01  7.13268954372E-01  7.13268954185E-01  7.13268953990E-01
  7.13268953784E-01  7.13268953567E-01  7.13268953340E-01  7.13268953101E-01
  7.13268952850E-01  7.13268952586E-01  7.13268952309E-01  7.13268952017E-01
  7.13268951710E-01  7.13268951388E-01  7.13268951050E-01  7.13268950694E-01
  7.13268950320E-01  7.13268949927E-01  7.13268949513E-01  7.13268949079E-01
  7.13268948623E-01  7.13268948143E-01  7.13268947638E-01  7.13268947108E-01
  7.13268946551E-01  7.13268945966E-01  7.13268945350E-01  7.13268944703E-01
  7.13268944023E-01  7.13268943309E-01  7.13268942558E-01  7.13268941768E-01
  7.13268940938E-01  7.13268940066E-01  7.13268939149E-01  7.13268938186E-01
  7.13268937173E-01  7.13268936109E-01  7.13268934990E-01  7.13268933814E-01
  7.13268932578E-01  7.13268931279E-01  7.13268929914E-01  7.13268928479E-01
  7.13268926971E-01  7.13268925385E-01  7.13268923719E-01  7.13268921968E-01
  7.13268920127E-01  7.13268918192E-01  7.13268916159E-01  7.13268914022E-01
  7.13268911775E-01  7.13268909414E-01  7.13268906932E-01  7.13268904324E-01
  7.13268901582E-01  7.13268898701E-01  7.13268895672E-01  7.13268892489E-01
  7.13268889143E-01  7.13268885626E-01  7.13268881930E-01  7.13268878045E-01
  7.13268873961E-01  7.13268869670E-01  7.13268865159E-01  7.13268860417E-01
  7.13268855434E-01  7.13268850196E-01  7.13268844691E-01  7.13268838905E-01
  7.13268832823E-01  7.13268826431E-01  7.13268819712E-01  7.13268812650E-01
  7.13268805228E-01  7.13268797427E-01  7.13268789228E-01  7.13268780610E-01
  7.13268771551E-01  7.13268762031E-01  7.13268752024E-01  7.13268741506E-01
  7.13268730452E-01  7.13268718833E-01  7.13268706620E-01  7.13268693785E-01
  7.13268680293E-01  7.13268666113E-01  7.13268651209E-01  7.13268635544E-01
  7.13268619080E-01  7.13268601774E-01  7.13268583585E-01  7.13268564468E-01
  7.13268544374E-01  7.13268523254E-01  7.13268501056E-01  7.13268477725E-01
  7.13268453202E-01  7.13268427427E-01  7.13268400337E-01  7.13268371863E-01
  7.13268341935E-01  7.13268310479E-01  7.13268277417E-01  7.13268242668E-01
  7.13268206144E-01  7.13268167755E-01  7.13268127406E-01  7.13268084997E-01
  7.13268040423E-01  7.13267993572E-01  7.13267944330E-01  7.13267892574E-01
  7.13267838175E-01  7.13267780999E-01  7.13267720903E-01  7.13267657739E-01
  7.13267591350E-01  7.13267521571E-01  7.13267448230E-01  7.13267371144E-01
  7.13267290122E-01  7.13267204964E-01  7.13267115458E-01  7.13267021381E-01
  7.13266922502E-01  7.13266818573E-01  7.13266709339E-01  7.13266594527E-01
  7.13266473853E-01  7.13266347019E-01  7.13266213708E-01  7.13266073591E-01
  7.13265926319E-01  7.13265771529E-01  7.13265608835E-01  7.13265437835E-01
  7.13265258104E-01  7.13265069196E-01  7.13264870643E-01  7.13264661953E-01
  7.13264442607E-01  7.13264212063E-01  7.13263969747E-01  7.13263715060E-01
  7.13263447369E-01  7.13263166010E-01  7.13262870286E-01  7.13262559464E-01
  7.13262232772E-01  7.13261889400E-01  7.13261528496E-01  7.13261149166E-01
  7.13260750468E-01  7.13260331414E-01  7.13259890965E-01  7.13259428027E-01
  7.13258941454E-01  7.13258430038E-01  7.13257892510E-01  7.13257327539E-01
  7.13256733722E-01  7.13256109586E-01  7.13255453585E-01  7.13254764090E-01
  7.13254039393E-01  7.13253277695E-01  7.13252477107E-01  7.13251635645E-01
  7.13250751221E-01  7.13249821641E-01  7.13248844602E-01  7.13247817678E-01
  7.13246738324E-01  7.13245603863E-01  7.13244411482E-01  7.13243158222E-01
  7.13241840977E-01  7.13240456480E-01  7.13239001297E-01  7.13237471819E-01
  7.13235864254E-01  7.13234174615E-01  7.13232398711E-01  7.13230532140E-01
  7.13228570272E-01  7.13226508242E-01  7.13224340937E-01  7.13222062982E-01
  7.13219668729E-01  7.13217152241E-01  7.13214507278E-01  7.13211727281E-01
  7.13208805356E-01  7.13205734259E-01  7.13202506375E-01  7.13199113700E-01
  7.13195547823E-01  7.13191799901E-01  7.13187860642E-01  7.13183720280E-01
  7.13179368548E-01  7.13174794659E-01  7.13169987272E-01  7.13164934469E-01
  7.13159623724E-01  7.13154041871E-01  7.13148175072E-01  7.13142008785E-01
  7.13135527724E-01  7.13128715823E-01  7.13121556199E-01  7.13114031104E-01
  7.13106121888E-01  7.13097808948E-01  7.13089071681E-01  7.13079888433E-01
  7.13070236447E-01  7.13060091804E-01  7.13049429366E-01  7.13038222713E-01
  7.13026444078E-01  7.13014064278E-01  7.13001052642E-01  7.12987376936E-01
  7.12973003282E-01  7.12957896076E-01  7.12942017901E-01  7.12925329429E-01
  7.12907789332E-01  7.12889354174E-01  7.12869978308E-01  7.12849613760E-01
  7.12828210113E-01  7.12805714384E-01  7.12782070889E-01  7.12757221112E-01
  7.12731103556E-01  7.12703653595E-01  7.12674803315E-01  7.12644481345E-01
  7.12612612682E-01  7.12579118512E-01  7.12543916009E-01  7.12506918139E-01
  7.12468033441E-01  7.12427165809E-01  7.12384214253E-01  7.12339072651E-01
  7.12291629494E-01  7.12241767613E-01  7.12189363889E-01  7.12134288960E-01
  7.12076406900E-01  7.12015574892E-01  7.11951642881E-01  7.11884453207E-01
  7.11813840226E-01  7.11739629910E-01  7.11661639423E-01  7.11579676681E-01
  7.11493539890E-01  7.11403017057E-01  7.11307885487E-01  7.11207911240E-01